/*--------------------------------*- C++ -*----------------------------------*\
  =========                 |
  \\      /  F ield         | OpenFOAM: The Open Source CFD Toolbox
   \\    /   O peration     | Website:  https://openfoam.org
    \\  /    A nd           | Version:  9
     \\/     M anipulation  |
\*---------------------------------------------------------------------------*/
FoamFile
{
    format      ascii;
    class       volScalarField;
    location    "0";
    object      yPlus;
}
// * * * * * * * * * * * * * * * * * * * * * * * * * * * * * * * * * * * * * //

dimensions      [0 0 0 0 0 0 0];

internalField   uniform 0;

boundaryField
{
    inlet
    {
        type            calculated;
        value           uniform 0;
    }
    outlet
    {
        type            calculated;
        value           uniform 0;
    }
    splitter
    {
        type            calculated;
        value           nonuniform List<scalar> 
50
(
12.0362
13.6281
14.4425
14.4425
13.6281
12.0362
11.5154
11.5339
11.5529
11.5724
11.5925
11.6131
11.6342
11.6559
11.6781
11.701
11.7245
11.7484
11.7721
11.7951
11.8175
11.8393
11.8604
11.8809
11.9009
11.9203
11.9391
11.9574
11.9573
11.9388
11.9198
11.9002
11.8802
11.8596
11.8385
11.8168
11.7945
11.7717
11.7482
11.7243
11.7006
11.6775
11.6552
11.6334
11.6123
11.5917
11.5718
11.5524
11.5335
11.5152
)
;
    }
    fuel_inlet
    {
        type            calculated;
        value           uniform 0;
    }
    back
    {
        type            calculated;
        value           nonuniform List<scalar> 
31
(
7.88779
7.88779
7.88779
7.88779
7.88779
7.88779
7.88779
7.88779
7.88779
7.88779
7.88779
7.88779
7.88779
7.88779
8.46884
10.1931
8.46884
7.88779
7.88779
7.88779
7.88779
7.88779
7.88779
7.88779
7.88779
7.88779
7.88779
7.88779
7.88779
7.88779
7.88779
)
;
    }
    sides
    {
        type            calculated;
        value           nonuniform List<scalar> 
260
(
11.2268
11.2268
11.2268
11.2268
11.2268
11.2268
11.2268
11.2268
11.2268
11.2268
11.2268
11.2268
11.2268
11.2268
11.2268
11.2268
11.2268
11.2268
11.2268
11.2268
11.2268
11.2268
11.2268
11.2268
11.2268
11.2268
11.2268
11.2268
11.2268
11.2268
11.2268
11.2268
11.2268
11.2268
11.2268
11.2268
11.2268
11.2268
11.2268
11.2268
11.2268
11.2268
11.2268
11.2268
11.2268
11.2268
11.2268
11.2268
11.2268
11.2268
11.2268
11.2268
11.2268
11.2268
11.2268
11.2268
11.2268
11.2268
11.2268
11.2268
11.2268
11.2268
11.2268
11.2268
11.2268
11.2268
11.2268
11.2268
11.2268
11.2268
11.2268
11.2268
11.2268
11.2268
11.2268
11.2268
11.2268
11.2268
11.2268
11.2268
11.2268
11.2268
11.2268
11.2268
11.2268
11.2268
11.2268
11.2268
11.2268
11.2268
11.2268
11.2268
11.2268
11.2268
11.2268
11.2268
11.2268
11.2268
11.2268
11.2268
11.2268
11.2268
11.2268
11.2268
11.2268
11.2268
11.2268
11.2268
11.2268
11.2268
11.2268
11.2268
11.2268
11.2268
11.2268
11.2268
11.2268
11.2268
11.2268
11.2268
11.2268
11.2268
11.2268
11.2268
11.2268
11.2268
11.2268
11.2268
11.2268
11.2268
11.2238
11.2238
11.2238
11.2238
11.2238
11.2238
11.2238
11.2238
11.2238
11.2238
11.2238
11.2238
11.2238
11.2238
11.2238
11.2238
11.2238
11.2238
11.2238
11.2238
11.2238
11.2238
11.2238
11.2238
11.2238
11.2238
11.2238
11.2238
11.2238
11.2238
11.2238
11.2238
11.2238
11.2238
11.2238
11.2238
11.2238
11.2238
11.2238
11.2238
11.2238
11.2238
11.2238
11.2238
11.2238
11.2238
11.2238
11.2238
11.2238
11.2238
11.2238
11.2238
11.2238
11.2238
11.2238
11.2238
11.2238
11.2238
11.2238
11.2238
11.2238
11.2238
11.2238
11.2238
11.2238
11.2238
11.2238
11.2238
11.2238
11.2238
11.2238
11.2238
11.2238
11.2238
11.2238
11.2238
11.2238
11.2238
11.2238
11.2238
11.2238
11.2238
11.2238
11.2238
11.2238
11.2238
11.2238
11.2238
11.2238
11.2238
11.2238
11.2238
11.2238
11.2238
11.2238
11.2238
11.2238
11.2238
11.2238
11.2238
11.2238
11.2238
11.2238
11.2238
11.2238
11.2238
11.2238
11.2238
11.2238
11.2238
11.2238
11.2238
11.2238
11.2238
11.2238
11.2238
11.2238
11.2238
11.2238
11.2238
11.2238
11.2238
11.2238
11.2238
11.2238
11.2238
11.2238
11.2238
11.2238
11.2238
)
;
    }
    frontAndBack
    {
        type            empty;
    }
}


// ************************************************************************* //
