/*--------------------------------*- C++ -*----------------------------------*\
 =========                |
 \      /  F ield         | OpenFOAM: The Open Source CFD Toolbox
  \    /   O peration     | Website:  https://openfoam.org
   \  /    A nd           | Version:  9                                     
    \/     M anipulation  |
\*---------------------------------------------------------------------------*/
FoamFile
{
    format      ascii;
    class       surfaceScalarField;
    object      phi;
}
// * * * * * * * * * * * * * * * * * * * * * * * * * * * * * * * * * * * * * //

dimensions      [1 0 -1 0 0 0 0];

internalField   nonuniform List<scalar> 
31053
(
2.53796e-06
2.1777e-06
3.48795e-06
4.46246e-06
3.74037e-06
5.95991e-06
3.69889e-06
7.17182e-06
3.55248e-06
8.33044e-06
3.35809e-06
9.58784e-06
3.13338e-06
1.10063e-05
2.88738e-06
1.26208e-05
2.62585e-06
1.44651e-05
2.35431e-06
1.6574e-05
2.07771e-06
1.89882e-05
1.80087e-06
2.17536e-05
1.52942e-06
2.4922e-05
1.26931e-06
2.85534e-05
1.06341e-06
2.70404e-05
8.89134e-07
2.70088e-05
7.41908e-07
2.69817e-05
6.18547e-07
2.69579e-05
5.16046e-07
2.6937e-05
4.3186e-07
2.69187e-05
3.63203e-07
2.69031e-05
3.11366e-07
2.45588e-05
2.71899e-07
2.20676e-05
2.41191e-07
1.98307e-05
2.16857e-07
1.78216e-05
1.97266e-07
1.60167e-05
1.8128e-07
1.4395e-05
1.68081e-07
1.29378e-05
1.57071e-07
1.16283e-05
1.47808e-07
1.04514e-05
1.39952e-07
9.39382e-06
1.33245e-07
8.44329e-06
1.27485e-07
7.58899e-06
1.22512e-07
6.82116e-06
6.13106e-06
1.18193e-07
8.06492e-07
1.37506e-06
1.71991e-06
3.55357e-06
2.32745e-06
5.35765e-06
2.55137e-06
6.95398e-06
2.55926e-06
8.32955e-06
2.49694e-06
9.65819e-06
2.40729e-06
1.11052e-05
2.29723e-06
1.27415e-05
2.16914e-06
1.46053e-05
2.02458e-06
1.67325e-05
1.86659e-06
1.91622e-05
1.6992e-06
2.19394e-05
1.5261e-06
2.51161e-05
1.35039e-06
2.87533e-05
1.20339e-06
2.72104e-05
1.07381e-06
2.71613e-05
9.59168e-07
2.71193e-05
8.57266e-07
2.70827e-05
7.66505e-07
2.70507e-05
6.85333e-07
2.70228e-05
6.12485e-07
2.69989e-05
5.52442e-07
2.46398e-05
5.03219e-07
2.21356e-05
4.62417e-07
1.98884e-05
4.28264e-07
1.78709e-05
3.9943e-07
1.60592e-05
3.74905e-07
1.44318e-05
3.53908e-07
1.29698e-05
3.3583e-07
1.16563e-05
3.20187e-07
1.0476e-05
3.06589e-07
9.41544e-06
2.94724e-07
8.46236e-06
2.84336e-07
7.60586e-06
2.75212e-07
6.83611e-06
6.14433e-06
2.67178e-07
1.48913e-07
1.22969e-06
6.70501e-07
3.03604e-06
1.30687e-06
4.72593e-06
1.74953e-06
6.51663e-06
1.91231e-06
8.17285e-06
1.94468e-06
9.63279e-06
1.93763e-06
1.11202e-05
1.91039e-06
1.27779e-05
1.86426e-06
1.4662e-05
1.79758e-06
1.68113e-05
1.71026e-06
1.92634e-05
1.60451e-06
2.2061e-05
1.48346e-06
2.52555e-05
1.35089e-06
2.89069e-05
1.23449e-06
2.73467e-05
1.12771e-06
2.7288e-05
1.02974e-06
2.72372e-05
9.39524e-07
2.71928e-05
8.56195e-07
2.71539e-05
7.78973e-07
2.71199e-05
7.07351e-07
2.70904e-05
6.46616e-07
2.47187e-05
5.95623e-07
2.2203e-05
5.52502e-07
1.99463e-05
5.15787e-07
1.79209e-05
4.84328e-07
1.61025e-05
4.57219e-07
1.44696e-05
4.33741e-07
1.30029e-05
4.13318e-07
1.16853e-05
3.95481e-07
1.05016e-05
3.7985e-07
9.43804e-06
3.66111e-07
8.48237e-06
3.54003e-07
7.6236e-06
3.43307e-07
6.85187e-06
6.15834e-06
3.33845e-07
6.84571e-08
1.16473e-06
3.30662e-07
2.77778e-06
7.70163e-07
4.29088e-06
1.25486e-06
6.03697e-06
1.55005e-06
7.88336e-06
1.6389e-06
9.55045e-06
1.64765e-06
1.11189e-05
1.63051e-06
1.28036e-05
1.60184e-06
1.47005e-05
1.56259e-06
1.68618e-05
1.51046e-06
1.93285e-05
1.44273e-06
2.21436e-05
1.35865e-06
2.53566e-05
1.25959e-06
2.90255e-05
1.16761e-06
2.74573e-05
1.0797e-06
2.73945e-05
9.96467e-07
2.7339e-05
9.17857e-07
2.729e-05
8.436e-07
2.72468e-05
7.73441e-07
2.72087e-05
7.07254e-07
2.71752e-05
6.50254e-07
2.47927e-05
6.01783e-07
2.22667e-05
5.60382e-07
2.00014e-05
5.24851e-07
1.79688e-05
4.94215e-07
1.61442e-05
4.67684e-07
1.45061e-05
4.44618e-07
1.30349e-05
4.24491e-07
1.17135e-05
4.06871e-07
1.05265e-05
3.914e-07
9.46003e-06
3.77782e-07
8.50184e-06
3.65771e-07
7.64087e-06
3.55159e-07
6.86722e-06
6.17199e-06
3.45765e-07
4.71012e-08
1.12106e-06
1.9834e-07
2.63042e-06
4.72977e-07
4.02063e-06
8.64525e-07
5.65037e-06
1.22529e-06
7.52819e-06
1.38592e-06
9.39618e-06
1.42002e-06
1.10921e-05
1.41344e-06
1.28185e-05
1.39195e-06
1.47315e-05
1.36138e-06
1.69034e-05
1.32155e-06
1.93809e-05
1.27019e-06
2.22095e-05
1.20516e-06
2.54383e-05
1.12581e-06
2.9124e-05
1.04958e-06
2.75516e-05
9.74799e-07
2.74874e-05
9.02697e-07
2.74293e-05
8.33748e-07
2.73771e-05
7.68039e-07
2.73306e-05
7.05568e-07
2.72893e-05
6.46337e-07
2.72526e-05
5.95078e-07
2.48606e-05
5.51302e-07
2.23254e-05
5.13784e-07
2.00523e-05
4.81502e-07
1.80131e-05
4.53613e-07
1.6183e-05
4.29425e-07
1.454e-05
4.08371e-07
1.30647e-05
3.89982e-07
1.17398e-05
3.73872e-07
1.05497e-05
3.59719e-07
9.48054e-06
3.47254e-07
8.52002e-06
3.36254e-07
7.65701e-06
3.26529e-07
6.88156e-06
6.18475e-06
3.17922e-07
3.27148e-08
1.0916e-06
1.31e-07
2.53587e-06
3.10025e-07
3.84586e-06
5.92814e-07
5.37241e-06
9.34142e-07
7.19236e-06
1.15847e-06
9.17811e-06
1.22654e-06
1.10311e-05
1.23232e-06
1.28209e-05
1.21611e-06
1.47571e-05
1.18907e-06
1.69412e-05
1.15353e-06
1.94289e-05
1.10863e-06
2.22686e-05
1.05248e-06
2.55108e-05
9.83668e-07
2.92116e-05
9.16617e-07
2.76365e-05
8.49919e-07
2.7572e-05
7.84987e-07
2.7512e-05
7.22578e-07
2.74574e-05
6.63021e-07
2.7408e-05
6.06451e-07
2.73637e-05
5.52936e-07
2.7324e-05
5.06767e-07
2.4923e-05
4.67478e-07
2.23794e-05
4.33941e-07
2.0099e-05
4.05213e-07
1.80537e-05
3.80515e-07
1.62183e-05
3.59203e-07
1.45709e-05
3.4075e-07
1.30918e-05
3.24719e-07
1.17635e-05
3.10749e-07
1.05706e-05
2.98541e-07
9.499e-06
2.87844e-07
8.53634e-06
2.78445e-07
7.67147e-06
2.70164e-07
6.89438e-06
6.19614e-06
2.6285e-07
2.15354e-08
1.07314e-06
8.82132e-08
2.47272e-06
2.11457e-07
3.72667e-06
4.13391e-07
5.17513e-06
6.94132e-07
6.91694e-06
9.48375e-07
8.92996e-06
1.05354e-06
1.0933e-05
1.07008e-06
1.28124e-05
1.05593e-06
1.47805e-05
1.03003e-06
1.69777e-05
9.9551e-07
1.94755e-05
9.52506e-07
2.23255e-05
8.99811e-07
2.55795e-05
8.36029e-07
2.92937e-05
7.73941e-07
2.7716e-05
7.11961e-07
2.76513e-05
6.51446e-07
2.75899e-05
5.93287e-07
2.75329e-05
5.37981e-07
2.74807e-05
4.85782e-07
2.74333e-05
4.3682e-07
2.73904e-05
3.94992e-07
2.49808e-05
3.59768e-07
2.24289e-05
3.30027e-07
2.01416e-05
3.04834e-07
1.80904e-05
2.83421e-07
1.62501e-05
2.65154e-07
1.45985e-05
2.49515e-07
1.31158e-05
2.36078e-07
1.17845e-05
2.24492e-07
1.0589e-05
2.14469e-07
9.51512e-06
2.0577e-07
8.55053e-06
1.98195e-07
7.68397e-06
1.9158e-07
6.90543e-06
6.20592e-06
1.85787e-07
1.41496e-08
1.06187e-06
6.01977e-08
2.42999e-06
1.47369e-07
3.64332e-06
2.93139e-07
5.03377e-06
5.09673e-07
6.70548e-06
7.52925e-07
8.69254e-06
8.90115e-07
1.08025e-05
9.19881e-07
1.27904e-05
9.08573e-07
1.48007e-05
8.82118e-07
1.70143e-05
8.46215e-07
1.95231e-05
8.0195e-07
2.23832e-05
7.48769e-07
2.5648e-05
6.85639e-07
2.93744e-05
6.24906e-07
2.77934e-05
5.64627e-07
2.77283e-05
5.06014e-07
2.76653e-05
4.49987e-07
2.76057e-05
3.97143e-07
2.75503e-05
3.4783e-07
2.74993e-05
3.02239e-07
2.74527e-05
2.63941e-07
2.50344e-05
2.32269e-07
2.24743e-05
2.06031e-07
2.01802e-05
1.8424e-07
1.81233e-05
1.66091e-07
1.62782e-05
1.50925e-07
1.46226e-05
1.38207e-07
1.31366e-05
1.27503e-07
1.18025e-05
1.1846e-07
1.06045e-05
1.10791e-07
9.52865e-06
1.04262e-07
8.56232e-06
9.86839e-08
7.69428e-06
9.38999e-08
6.91447e-06
6.21386e-06
8.97826e-08
8.99855e-09
1.05558e-06
4.03414e-08
2.40176e-06
1.01748e-07
3.58551e-06
2.07021e-07
4.93264e-06
3.69627e-07
6.54766e-06
5.78617e-07
8.48908e-06
7.33255e-07
1.06542e-05
7.77333e-07
1.27536e-05
7.69633e-07
1.48168e-05
7.41514e-07
1.70521e-05
7.02433e-07
1.95732e-05
6.54601e-07
2.24437e-05
5.98066e-07
2.57191e-05
5.32233e-07
2.9457e-05
4.69894e-07
2.78716e-05
4.08707e-07
2.78054e-05
3.49744e-07
2.77401e-05
2.9391e-07
2.76774e-05
2.41862e-07
2.76182e-05
1.94024e-07
2.75631e-05
1.50647e-07
2.75119e-05
1.15053e-07
2.50845e-05
8.63811e-08
2.2516e-05
6.33028e-08
2.0215e-05
4.4728e-08
1.81524e-05
2.97709e-08
1.63027e-05
1.7716e-08
1.46432e-05
7.98799e-09
1.3154e-05
1.2556e-10
1.18172e-05
-6.24041e-09
1.06171e-05
-1.1405e-08
9.53937e-06
-1.56039e-08
8.57152e-06
-1.90256e-08
7.7022e-06
-2.18206e-08
6.9213e-06
6.21978e-06
-2.41096e-08
4.35848e-09
1.05377e-06
2.39096e-08
2.38514e-06
6.54478e-08
3.54735e-06
1.40359e-07
4.86162e-06
2.61142e-07
6.43136e-06
4.29718e-07
8.32568e-06
5.82763e-07
1.05072e-05
6.38119e-07
1.27052e-05
6.31437e-07
1.48314e-05
6.00674e-07
1.7092e-05
5.57454e-07
1.96269e-05
5.04811e-07
2.25084e-05
4.43245e-07
2.57945e-05
3.7255e-07
2.95435e-05
3.06516e-07
2.79526e-05
2.42443e-07
2.78844e-05
1.81329e-07
2.78162e-05
1.24081e-07
2.77496e-05
7.14118e-08
2.76859e-05
2.38227e-08
2.76256e-05
-1.83624e-08
2.75691e-05
-5.19989e-08
2.51317e-05
-7.81819e-08
2.25544e-05
-9.84251e-08
2.02463e-05
-1.13966e-07
1.81778e-05
-1.25804e-07
1.63234e-05
-1.3474e-07
1.46601e-05
-1.41412e-07
1.31678e-05
-1.46325e-07
1.18286e-05
-1.49878e-07
1.06264e-05
-1.52385e-07
9.54711e-06
-1.54091e-07
8.57792e-06
-1.55189e-07
7.70752e-06
-1.55829e-07
6.92574e-06
6.22349e-06
-1.56127e-07
1.14111e-10
1.05606e-06
9.54732e-09
2.37847e-06
3.48292e-08
3.52524e-06
8.54338e-08
4.81466e-06
1.72391e-07
6.34861e-06
3.01794e-07
8.20113e-06
4.39217e-07
1.03753e-05
5.00907e-07
1.26499e-05
4.94287e-07
1.48454e-05
4.59458e-07
1.71353e-05
4.10661e-07
1.96855e-05
3.51651e-07
2.25786e-05
2.83254e-07
2.58757e-05
2.05578e-07
2.96359e-05
1.33857e-07
2.80383e-05
6.50046e-08
2.79673e-05
8.74822e-12
2.78952e-05
-6.02138e-08
2.78238e-05
-1.14883e-07
2.77545e-05
-1.63417e-07
2.76881e-05
-2.05411e-07
2.7625e-05
-2.37823e-07
2.51769e-05
-2.62019e-07
2.25901e-05
-2.79744e-07
2.02743e-05
-2.92423e-07
1.81998e-05
-3.01203e-07
1.63405e-05
-3.06998e-07
1.46734e-05
-3.10529e-07
1.31781e-05
-3.12364e-07
1.18365e-05
-3.12946e-07
1.06325e-05
-3.12618e-07
9.55167e-06
-3.11644e-07
8.58134e-06
-3.10228e-07
7.71005e-06
-3.08523e-07
6.92758e-06
6.22481e-06
-3.06647e-07
-4.03931e-09
1.06237e-06
-3.70275e-09
2.38075e-06
7.48119e-09
3.51705e-06
3.75833e-08
4.788e-06
9.60449e-08
6.2941e-06
1.90091e-07
8.11163e-06
3.03551e-07
1.02671e-05
3.6465e-07
1.25948e-05
3.56868e-07
1.48601e-05
3.16793e-07
1.71833e-05
2.61068e-07
1.97503e-05
1.94175e-07
2.2656e-05
1.17207e-07
2.59647e-05
3.05387e-08
2.97364e-05
-4.87571e-08
2.81307e-05
-1.24204e-07
2.80558e-05
-1.94783e-07
2.79788e-05
-2.59517e-07
2.79016e-05
-3.17563e-07
2.78256e-05
-3.68248e-07
2.77519e-05
-4.11077e-07
2.76809e-05
-4.43031e-07
2.52208e-05
-4.65779e-07
2.26236e-05
-4.81342e-07
2.02995e-05
-4.91372e-07
1.82185e-05
-4.97194e-07
1.63541e-05
-4.99861e-07
1.46831e-05
-5.00202e-07
1.31847e-05
-4.98865e-07
1.18408e-05
-4.96349e-07
1.0635e-05
-4.93038e-07
9.55293e-06
-4.89224e-07
8.58164e-06
-4.85128e-07
7.70965e-06
-4.80912e-07
6.92669e-06
6.22358e-06
-4.76696e-07
-7.95383e-09
1.07248e-06
-1.5955e-08
2.39122e-06
-1.74378e-08
3.52136e-06
-5.40042e-09
4.77921e-06
2.83459e-08
6.26408e-06
9.11536e-08
8.0531e-06
1.76796e-07
1.01864e-05
2.29674e-07
1.25476e-05
2.18357e-07
1.48779e-05
1.71829e-07
1.72373e-05
1.07957e-07
1.98227e-05
3.17654e-08
2.2742e-05
-5.5413e-08
2.60631e-05
-1.52963e-07
2.98469e-05
-2.41614e-07
2.82316e-05
-3.25386e-07
2.81518e-05
-4.03185e-07
2.80689e-05
-4.73961e-07
2.79846e-05
-5.36781e-07
2.79007e-05
-5.90865e-07
2.78182e-05
-6.35611e-07
2.77379e-05
-6.67933e-07
2.52643e-05
-6.89833e-07
2.26555e-05
-7.03649e-07
2.03224e-05
-7.11295e-07
1.82343e-05
-7.14307e-07
1.63644e-05
-7.13904e-07
1.46892e-05
-7.11046e-07
1.31878e-05
-7.06475e-07
1.18415e-05
-7.00764e-07
1.06341e-05
-6.9435e-07
9.5508e-06
-6.87561e-07
8.5787e-06
-6.80639e-07
7.70619e-06
-6.73763e-07
6.92292e-06
6.21967e-06
-6.6706e-07
-1.17785e-08
1.08629e-06
-2.77545e-08
2.40953e-06
-4.10424e-08
3.53733e-06
-4.54835e-08
4.78671e-06
-3.38102e-08
6.25592e-06
1.11e-09
8.0222e-06
5.80587e-08
1.01341e-05
9.70146e-08
1.25139e-05
7.93001e-08
1.49017e-05
2.49102e-08
1.72987e-05
-4.8407e-08
1.99041e-05
-1.35301e-07
2.2838e-05
-2.34278e-07
2.61727e-05
-3.44536e-07
2.99692e-05
-4.44269e-07
2.83429e-05
-5.38066e-07
2.82571e-05
-6.24735e-07
2.8167e-05
-7.03118e-07
2.80745e-05
-7.72162e-07
2.79812e-05
-8.3097e-07
2.78885e-05
-8.7881e-07
2.77973e-05
-9.1243e-07
2.53084e-05
-9.34178e-07
2.26867e-05
-9.46749e-07
2.03434e-05
-9.52352e-07
1.82475e-05
-9.52767e-07
1.63717e-05
-9.49408e-07
1.4692e-05
-9.43383e-07
1.31873e-05
-9.35554e-07
1.18387e-05
-9.26582e-07
1.06296e-05
-9.16966e-07
9.5452e-06
-9.07082e-07
8.57243e-06
-8.97205e-07
7.69956e-06
-8.87532e-07
6.91617e-06
6.21296e-06
-8.78202e-07
-1.60092e-08
1.10423e-06
-3.97358e-08
2.43546e-06
-6.40602e-08
3.56418e-06
-8.36357e-08
4.80919e-06
-9.20142e-08
6.26762e-06
-8.24791e-08
8.01647e-06
-5.35505e-08
1.01095e-05
-3.24221e-08
1.24978e-05
-5.9235e-08
1.49343e-05
-1.23052e-07
1.7369e-05
-2.07151e-07
1.99957e-05
-3.06107e-07
2.29457e-05
-4.18392e-07
2.62949e-05
-5.43102e-07
3.01054e-05
-6.55591e-07
2.84662e-05
-7.61088e-07
2.83734e-05
-8.58277e-07
2.8275e-05
-9.45875e-07
2.81729e-05
-1.02268e-06
2.80689e-05
-1.08765e-06
2.79643e-05
-1.1399e-06
2.78603e-05
-1.17589e-06
2.53543e-05
-1.19832e-06
2.2718e-05
-1.21028e-06
2.03634e-05
-1.21431e-06
1.82587e-05
-1.21247e-06
1.63763e-05
-1.20637e-06
1.46918e-05
-1.19731e-06
1.31835e-05
-1.18628e-06
1.18323e-05
-1.17405e-06
1.06216e-05
-1.1612e-06
9.53614e-06
-1.14815e-06
8.56279e-06
-1.13523e-06
7.6897e-06
-1.12266e-06
6.90635e-06
6.20337e-06
-1.1106e-06
-2.00448e-08
1.12609e-06
-5.13056e-08
2.46881e-06
-8.61945e-08
3.60146e-06
-1.1992e-07
4.84566e-06
-1.46699e-07
6.29754e-06
-1.60403e-07
8.03377e-06
-1.58221e-07
1.01114e-05
-1.57498e-07
1.25018e-05
-1.96263e-07
1.49784e-05
-2.71026e-07
1.745e-05
-3.67068e-07
2.00989e-05
-4.7926e-07
2.3066e-05
-6.06191e-07
2.64312e-05
-7.46948e-07
3.02569e-05
-8.73765e-07
2.86032e-05
-9.92579e-07
2.85025e-05
-1.10193e-06
2.83946e-05
-1.20039e-06
2.82816e-05
-1.28659e-06
2.81653e-05
-1.3593e-06
2.80472e-05
-1.41745e-06
2.79287e-05
-1.45706e-06
2.54032e-05
-1.4812e-06
2.27506e-05
-1.49336e-06
2.03831e-05
-1.49645e-06
1.82686e-05
-1.49281e-06
1.63788e-05
-1.48432e-06
1.46887e-05
-1.47247e-06
1.31765e-05
-1.4584e-06
1.18227e-05
-1.44301e-06
1.06101e-05
-1.42697e-06
9.52367e-06
-1.41077e-06
8.5498e-06
-1.39478e-06
7.6766e-06
-1.37926e-06
6.89343e-06
6.19084e-06
-1.3644e-06
-2.38854e-08
1.1517e-06
-6.24919e-08
2.50939e-06
-1.07512e-07
3.64875e-06
-1.54499e-07
4.89524e-06
-1.98298e-07
6.34431e-06
-2.33377e-07
8.07225e-06
-2.56292e-07
1.01382e-05
-2.77501e-07
1.25275e-05
-3.30492e-07
1.50365e-05
-4.17415e-07
1.75428e-05
-5.26335e-07
2.02145e-05
-6.5274e-07
2.32001e-05
-7.95481e-07
2.65828e-05
-9.53723e-07
3.04253e-05
-1.09634e-06
2.87555e-05
-1.23005e-06
2.86458e-05
-1.35322e-06
2.85274e-05
-1.46424e-06
2.84023e-05
-1.56156e-06
2.82723e-05
-1.64373e-06
2.81391e-05
-1.70947e-06
2.80041e-05
-1.75417e-06
2.54568e-05
-1.78125e-06
2.27856e-05
-1.79464e-06
2.04036e-05
-1.7976e-06
1.82779e-05
-1.79283e-06
1.63798e-05
-1.78246e-06
1.46836e-05
-1.7682e-06
1.31669e-05
-1.75139e-06
1.18101e-05
-1.73304e-06
1.05956e-05
-1.71395e-06
9.50796e-06
-1.69468e-06
8.53358e-06
-1.67568e-06
7.66033e-06
-1.65725e-06
6.87745e-06
6.17539e-06
-1.63959e-06
-2.78845e-08
1.18121e-06
-7.35668e-08
2.55694e-06
-1.28137e-07
3.70546e-06
-1.87505e-07
4.95706e-06
-2.47097e-07
6.40671e-06
-3.01849e-07
8.13023e-06
-3.4799e-07
1.01881e-05
-3.91447e-07
1.25751e-05
-4.59896e-07
1.51098e-05
-5.59925e-07
1.76484e-05
-6.82494e-07
2.03434e-05
-8.23957e-07
2.33489e-05
-9.83542e-07
2.67508e-05
-1.16058e-06
3.06119e-05
-1.32039e-06
2.89244e-05
-1.47051e-06
2.88051e-05
-1.60914e-06
2.86752e-05
-1.73446e-06
2.85367e-05
-1.8447e-06
2.83916e-05
-1.93819e-06
2.82417e-05
-2.01339e-06
2.80884e-05
-2.06487e-06
2.55166e-05
-2.09635e-06
2.28246e-05
-2.1122e-06
2.04262e-05
-2.11609e-06
1.82879e-05
-2.11104e-06
1.63802e-05
-2.09949e-06
1.46769e-05
-2.0834e-06
1.31552e-05
-2.06428e-06
1.17949e-05
-2.04334e-06
1.05782e-05
-2.02146e-06
9.48929e-06
-1.99935e-06
8.51435e-06
-1.97748e-06
7.64106e-06
-1.95624e-06
6.85854e-06
6.15711e-06
-1.93586e-06
-3.1631e-08
1.21437e-06
-8.39459e-08
2.61101e-06
-1.47503e-07
3.77103e-06
-2.1846e-07
5.03034e-06
-2.92624e-07
6.48354e-06
-3.65398e-07
8.20605e-06
-4.3292e-07
1.02591e-05
-4.9809e-07
1.26443e-05
-5.82751e-07
1.5199e-05
-6.96457e-07
1.77673e-05
-8.33177e-07
2.04862e-05
-9.90302e-07
2.35129e-05
-1.16754e-06
2.69359e-05
-1.36447e-06
3.0818e-05
-1.54269e-06
2.91113e-05
-1.71061e-06
2.89817e-05
-1.86625e-06
2.88395e-05
-2.00759e-06
2.86867e-05
-2.13261e-06
2.85253e-05
-2.23939e-06
2.83571e-05
-2.32607e-06
2.81838e-05
-2.38622e-06
2.55847e-05
-2.42378e-06
2.28692e-05
-2.44357e-06
2.04524e-05
-2.44965e-06
1.82997e-05
-2.44541e-06
1.63811e-05
-2.4336e-06
1.46698e-05
-2.41643e-06
1.31422e-05
-2.39564e-06
1.17779e-05
-2.37261e-06
1.05585e-05
-2.34838e-06
9.4681e-06
-2.32374e-06
8.49244e-06
-2.29929e-06
7.61906e-06
-2.27545e-06
6.8369e-06
6.13617e-06
-2.25252e-06
-3.51054e-08
1.25093e-06
-9.35674e-08
2.67114e-06
-1.65422e-07
3.8448e-06
-2.47042e-07
5.11415e-06
-3.34493e-07
6.57351e-06
-4.23578e-07
8.29802e-06
-5.1061e-07
1.03494e-05
-5.96383e-07
1.27339e-05
-6.97476e-07
1.53045e-05
-8.25105e-07
1.78999e-05
-9.762e-07
2.0643e-05
-1.14932e-06
2.36926e-05
-1.34472e-06
2.71389e-05
-1.56234e-06
3.10442e-05
-1.75992e-06
2.93171e-05
-1.94683e-06
2.91768e-05
-2.1209e-06
2.90217e-05
-2.27988e-06
2.88539e-05
-2.42152e-06
2.86752e-05
-2.5436e-06
2.84874e-05
-2.64394e-06
2.82923e-05
-2.71481e-06
2.5663e-05
-2.76035e-06
2.29215e-05
-2.78578e-06
2.04839e-05
-2.79557e-06
1.8315e-05
-2.79346e-06
1.63839e-05
-2.78251e-06
1.46632e-05
-2.76523e-06
1.31289e-05
-2.74359e-06
1.17598e-05
-2.71915e-06
1.05373e-05
-2.69314e-06
9.44496e-06
-2.66646e-06
8.46835e-06
-2.63982e-06
7.59475e-06
-2.61371e-06
6.81289e-06
6.11284e-06
-2.58851e-06
-3.82932e-08
1.29059e-06
-1.02345e-07
2.73676e-06
-1.81717e-07
3.92598e-06
-2.72959e-07
5.20746e-06
-3.72406e-07
6.67534e-06
-4.76142e-07
8.40449e-06
-5.80698e-07
1.04571e-05
-6.85473e-07
1.28422e-05
-8.02653e-07
1.54258e-05
-9.44136e-07
1.80461e-05
-1.10955e-06
2.08138e-05
-1.29868e-06
2.3888e-05
-1.51243e-06
2.73598e-05
-1.75116e-06
3.12912e-05
-1.96877e-06
2.95424e-05
-2.1756e-06
2.93914e-05
-2.36929e-06
2.92232e-05
-2.5474e-06
2.90398e-05
-2.70742e-06
2.8843e-05
-2.84681e-06
2.86346e-05
-2.96306e-06
2.84164e-05
-3.04687e-06
2.57539e-05
-3.10247e-06
2.29835e-05
-3.13546e-06
2.05226e-05
-3.15069e-06
1.83354e-05
-3.15223e-06
1.63901e-05
-3.14351e-06
1.46587e-05
-3.1273e-06
1.31165e-05
-3.10583e-06
1.17417e-05
-3.08087e-06
1.05154e-05
-3.05383e-06
9.42064e-06
-3.02575e-06
8.44273e-06
-2.99746e-06
7.56866e-06
-2.96956e-06
6.78696e-06
6.08754e-06
-2.94247e-06
-4.11858e-08
1.33307e-06
-1.10233e-07
2.80729e-06
-1.96294e-07
4.01374e-06
-2.96041e-07
5.30917e-06
-4.06072e-07
6.78762e-06
-5.22813e-07
8.52381e-06
-6.42802e-07
1.05801e-05
-7.64691e-07
1.29675e-05
-8.97183e-07
1.55622e-05
-1.0521e-06
1.82055e-05
-1.23145e-06
2.09983e-05
-1.43629e-06
2.40987e-05
-1.66818e-06
2.75984e-05
-1.92805e-06
3.15588e-05
-2.16602e-06
2.97878e-05
-2.39338e-06
2.96261e-05
-2.60764e-06
2.94448e-05
-2.80616e-06
2.92457e-05
-2.98617e-06
2.90304e-05
-3.14484e-06
2.88006e-05
-3.27924e-06
2.85582e-05
-3.3783e-06
2.58597e-05
-3.4462e-06
2.30575e-05
-3.48885e-06
2.05707e-05
-3.51145e-06
1.83629e-05
-3.51842e-06
1.64014e-05
-3.51349e-06
1.46577e-05
-3.49975e-06
1.31063e-05
-3.47968e-06
1.17249e-05
-3.45528e-06
1.04939e-05
-3.42814e-06
9.39609e-06
-3.39948e-06
8.4164e-06
-3.37025e-06
7.54152e-06
-3.34115e-06
6.75974e-06
6.06078e-06
-3.3127e-06
-4.37397e-08
1.37803e-06
-1.17114e-07
2.88207e-06
-2.08937e-07
4.10718e-06
-3.16021e-07
5.4181e-06
-4.35186e-07
6.90891e-06
-5.63185e-07
8.65425e-06
-6.96583e-07
1.07163e-05
-8.33541e-07
1.31077e-05
-9.80182e-07
1.57125e-05
-1.14777e-06
1.83773e-05
-1.34038e-06
2.11958e-05
-1.56028e-06
2.43242e-05
-1.80977e-06
2.78543e-05
-2.09041e-06
3.18468e-05
-2.34867e-06
3.0053e-05
-2.59684e-06
2.98812e-05
-2.8323e-06
2.96873e-05
-3.05224e-06
2.94726e-05
-3.25366e-06
2.92387e-05
-3.4334e-06
2.89873e-05
-3.58817e-06
2.87199e-05
-3.7048e-06
2.59827e-05
-3.78732e-06
2.31457e-05
-3.84188e-06
2.06304e-05
-3.87396e-06
1.83996e-05
-3.88831e-06
1.642e-05
-3.88896e-06
1.46621e-05
-3.87929e-06
1.31e-05
-3.86205e-06
1.17106e-05
-3.83948e-06
1.0474e-05
-3.81337e-06
9.37242e-06
-3.78511e-06
8.39034e-06
-3.7558e-06
7.51418e-06
-3.72626e-06
6.73198e-06
6.03324e-06
-3.69712e-06
-4.5868e-08
1.42505e-06
-1.22821e-07
2.96035e-06
-2.19424e-07
4.2053e-06
-3.32646e-07
5.53307e-06
-4.59496e-07
7.03776e-06
-5.96964e-07
8.79403e-06
-7.41835e-07
1.08638e-05
-8.91745e-07
1.32607e-05
-1.05098e-06
1.58752e-05
-1.2302e-06
1.85606e-05
-1.43511e-06
2.14053e-05
-1.66913e-06
2.45635e-05
-1.93531e-06
2.81265e-05
-2.23595e-06
3.21544e-05
-2.51407e-06
3.03377e-05
-2.78295e-06
3.01567e-05
-3.03989e-06
2.99508e-05
-3.28195e-06
2.97212e-05
-3.50591e-06
2.94693e-05
-3.70834e-06
2.91964e-05
-3.88555e-06
2.89037e-05
-4.02204e-06
2.61253e-05
-4.12152e-06
2.32506e-05
-4.19031e-06
2.07041e-05
-4.23412e-06
1.84478e-05
-4.25796e-06
1.64477e-05
-4.26615e-06
1.46738e-05
-4.26234e-06
1.30993e-05
-4.24955e-06
1.17007e-05
-4.23026e-06
1.04573e-05
-4.20648e-06
9.35095e-06
-4.17978e-06
8.36573e-06
-4.15142e-06
7.48769e-06
-4.12236e-06
6.7046e-06
6.00571e-06
-4.09332e-06
-4.75698e-08
1.47371e-06
-1.27315e-07
3.04134e-06
-2.27701e-07
4.30712e-06
-3.45842e-07
5.65286e-06
-4.789e-07
7.17272e-06
-6.24082e-07
8.94139e-06
-7.78397e-07
1.10206e-05
-9.39163e-07
1.34243e-05
-1.10927e-06
1.60486e-05
-1.29883e-06
1.87539e-05
-1.51481e-06
2.16256e-05
-1.76171e-06
2.48154e-05
-2.04336e-06
2.84139e-05
-2.36283e-06
3.24804e-05
-2.65999e-06
3.06411e-05
-2.94909e-06
3.0452e-05
-3.2274e-06
3.02354e-05
-3.49191e-06
2.9992e-05
-3.73924e-06
2.97229e-05
-3.96567e-06
2.9429e-05
-4.16717e-06
2.91115e-05
-4.32569e-06
2.62895e-05
-4.44444e-06
2.33745e-05
-4.52982e-06
2.07941e-05
-4.58766e-06
1.85098e-05
-4.62321e-06
1.6487e-05
-4.64102e-06
1.4695e-05
-4.64501e-06
1.31063e-05
-4.63846e-06
1.16969e-05
-4.62408e-06
1.04454e-05
-4.60409e-06
9.33315e-06
-4.58028e-06
8.34388e-06
-4.55405e-06
7.46323e-06
-4.52652e-06
6.67866e-06
5.97914e-06
-4.49852e-06
-4.88287e-08
1.52357e-06
-1.30576e-07
3.12427e-06
-2.33734e-07
4.41164e-06
-3.55569e-07
5.77626e-06
-4.93375e-07
7.31232e-06
-6.44552e-07
9.09463e-06
-8.06302e-07
1.11847e-05
-9.75853e-07
1.35966e-05
-1.15502e-06
1.62309e-05
-1.35341e-06
1.89559e-05
-1.57905e-06
2.18554e-05
-1.83737e-06
2.50784e-05
-2.13293e-06
2.87149e-05
-2.46969e-06
3.28234e-05
-2.7847e-06
3.0962e-05
-3.09312e-06
3.07664e-05
-3.39231e-06
3.05404e-05
-3.67921e-06
3.02848e-05
-3.95035e-06
2.99999e-05
-4.20179e-06
2.96864e-05
-4.42916e-06
2.93447e-05
-4.61166e-06
2.64774e-05
-4.7519e-06
2.35196e-05
-4.85616e-06
2.09027e-05
-4.93038e-06
1.85879e-05
-4.97991e-06
1.65401e-05
-5.00953e-06
1.47278e-05
-5.02337e-06
1.3123e-05
-5.02497e-06
1.1701e-05
-5.01726e-06
1.044e-05
-5.00268e-06
9.32064e-06
-4.98321e-06
8.32627e-06
-4.96044e-06
7.44214e-06
-4.93563e-06
6.65536e-06
5.95461e-06
-4.90975e-06
-4.96155e-08
1.57415e-06
-1.32586e-07
3.20836e-06
-2.37525e-07
4.51786e-06
-3.61857e-07
5.90206e-06
-5.02993e-07
7.45514e-06
-6.58507e-07
9.25209e-06
-8.25791e-07
1.13542e-05
-1.00208e-06
1.37754e-05
-1.18844e-06
1.64203e-05
-1.39404e-06
1.91649e-05
-1.62777e-06
2.2093e-05
-1.89583e-06
2.53509e-05
-2.20353e-06
2.90277e-05
-2.55571e-06
3.31815e-05
-2.887e-06
3.12989e-05
-3.21349e-06
3.10984e-05
-3.53266e-06
3.08652e-05
-3.84151e-06
3.05992e-05
-4.1365e-06
3.03005e-05
-4.41355e-06
2.9969e-05
-4.66802e-06
2.96048e-05
-4.87622e-06
2.66907e-05
-5.03994e-06
2.36879e-05
-5.16529e-06
2.10322e-05
-5.25814e-06
1.86844e-05
-5.32394e-06
1.66092e-05
-5.36758e-06
1.47744e-05
-5.39341e-06
1.31516e-05
-5.40515e-06
1.17152e-05
-5.40598e-06
1.0443e-05
-5.39854e-06
9.31515e-06
-5.385e-06
8.31449e-06
-5.36715e-06
7.42586e-06
-5.3464e-06
6.63603e-06
5.93332e-06
-5.32384e-06
-4.99363e-08
1.62501e-06
-1.33377e-07
3.29285e-06
-2.39147e-07
4.62484e-06
-3.64829e-07
6.02914e-06
-5.07945e-07
7.59986e-06
-6.66227e-07
9.41221e-06
-8.37247e-07
1.15274e-05
-1.0183e-06
1.39589e-05
-1.21001e-06
1.66148e-05
-1.42116e-06
1.93792e-05
-1.66129e-06
2.23368e-05
-1.93727e-06
2.56311e-05
-2.25511e-06
2.93504e-05
-2.62054e-06
3.35525e-05
-2.96625e-06
3.16499e-05
-3.30921e-06
3.14467e-05
-3.64711e-06
3.12084e-05
-3.97703e-06
3.09344e-05
-4.29548e-06
3.06242e-05
-4.59834e-06
3.02772e-05
-4.88075e-06
2.98925e-05
-5.11602e-06
2.69308e-05
-5.30501e-06
2.38812e-05
-5.4535e-06
2.11846e-05
-5.5672e-06
1.88016e-05
-5.65153e-06
1.66967e-05
-5.71146e-06
1.48372e-05
-5.75148e-06
1.31941e-05
-5.77549e-06
1.17415e-05
-5.78686e-06
1.04564e-05
-5.78845e-06
9.31858e-06
-5.78261e-06
8.31031e-06
-5.7713e-06
7.41605e-06
-5.75611e-06
6.62218e-06
5.91665e-06
-5.73823e-06
-4.9824e-08
1.6757e-06
-1.3303e-07
3.37706e-06
-2.38736e-07
4.73169e-06
-3.6469e-07
6.15641e-06
-5.08517e-07
7.7452e-06
-6.68093e-07
9.57352e-06
-8.41164e-07
1.17024e-05
-1.02515e-06
1.41452e-05
-1.2204e-06
1.68126e-05
-1.43542e-06
1.95973e-05
-1.68021e-06
2.2585e-05
-1.9622e-06
2.59171e-05
-2.28804e-06
2.96808e-05
-2.66436e-06
3.3934e-05
-3.02238e-06
3.20129e-05
-3.37994e-06
3.18092e-05
-3.73494e-06
3.15683e-05
-4.08467e-06
3.12891e-05
-4.4258e-06
3.09703e-05
-4.75422e-06
3.06106e-05
-5.06502e-06
3.02082e-05
-5.32847e-06
2.71988e-05
-5.54434e-06
2.41012e-05
-5.71791e-06
2.13618e-05
-5.85461e-06
1.89416e-05
-5.95972e-06
1.68048e-05
-6.03826e-06
1.49184e-05
-6.09481e-06
1.32531e-05
-6.13343e-06
1.17823e-05
-6.15766e-06
1.04826e-05
-6.1705e-06
9.33317e-06
-6.17449e-06
8.31587e-06
-6.17175e-06
7.41472e-06
-6.16401e-06
6.61571e-06
5.90636e-06
-6.15258e-06
-4.91974e-08
1.72572e-06
-1.3147e-07
3.46027e-06
-2.36286e-07
4.83759e-06
-3.61552e-07
6.28291e-06
-5.04979e-07
7.89005e-06
-6.64556e-07
9.73473e-06
-8.38186e-07
1.18779e-05
-1.02343e-06
1.43326e-05
-1.22054e-06
1.70122e-05
-1.43778e-06
1.98174e-05
-1.68547e-06
2.2836e-05
-1.97151e-06
2.62069e-05
-2.3031e-06
3.00168e-05
-2.68775e-06
3.43237e-05
-3.05579e-06
3.23857e-05
-3.4258e-06
3.21839e-05
-3.79595e-06
3.19432e-05
-4.16387e-06
3.16618e-05
-4.52647e-06
3.13377e-05
-4.87983e-06
3.09686e-05
-5.21907e-06
3.05522e-05
-5.51143e-06
2.74954e-05
-5.75544e-06
2.4349e-05
-5.95583e-06
2.15657e-05
-6.11773e-06
1.91067e-05
-6.2463e-06
1.69361e-05
-6.34648e-06
1.50211e-05
-6.42281e-06
1.33317e-05
-6.47933e-06
1.18408e-05
-6.51961e-06
1.05247e-05
-6.54672e-06
9.36192e-06
-6.56328e-06
8.33391e-06
-6.57153e-06
7.42431e-06
-6.57334e-06
6.61871e-06
-6.57011e-06
5.9042e-06
1.10729e-07
9.80238e-06
1.03478e-07
1.00625e-05
9.64431e-08
1.03296e-05
8.96223e-08
1.06037e-05
8.30112e-08
1.08852e-05
7.66051e-08
1.11741e-05
7.03988e-08
1.14707e-05
6.43862e-08
1.17753e-05
5.85604e-08
1.20879e-05
5.29143e-08
1.24088e-05
4.744e-08
1.27383e-05
4.22045e-08
1.28913e-05
3.7389e-08
1.25254e-05
3.29448e-08
1.21699e-05
2.88294e-08
1.18245e-05
2.50064e-08
1.14889e-05
2.14441e-08
1.11629e-05
1.81151e-08
1.08462e-05
1.49955e-08
1.05385e-05
1.20645e-08
1.02395e-05
9.3031e-09
9.94897e-06
9.66672e-06
6.69102e-09
2.52947e-07
9.82497e-06
2.38889e-07
1.00851e-05
2.25003e-07
1.03522e-05
2.11294e-07
1.06264e-05
1.97763e-07
1.09079e-05
1.84413e-07
1.11968e-05
1.71245e-07
1.14935e-05
1.58261e-07
1.1798e-05
1.45459e-07
1.21107e-05
1.32839e-07
1.24317e-05
1.20399e-07
1.27612e-05
1.08304e-07
1.29139e-05
9.6999e-08
1.25468e-05
8.64069e-08
1.21903e-05
7.64617e-08
1.1844e-05
6.71042e-08
1.15075e-05
5.82817e-08
1.11807e-05
4.99471e-08
1.08632e-05
4.20585e-08
1.05547e-05
3.45784e-08
1.0255e-05
2.74733e-08
9.9639e-06
9.68106e-06
2.07131e-08
3.172e-07
9.84887e-06
3.00645e-07
1.01091e-05
2.84183e-07
1.03762e-05
2.67823e-07
1.06505e-05
2.51574e-07
1.0932e-05
2.35445e-07
1.1221e-05
2.19443e-07
1.15178e-05
2.03574e-07
1.18224e-05
1.87843e-07
1.21351e-05
1.72253e-07
1.24561e-05
1.56807e-07
1.27857e-05
1.41713e-07
1.29381e-05
1.27531e-07
1.25698e-05
1.14178e-07
1.22121e-05
1.01583e-07
1.18648e-05
8.96814e-08
1.15273e-05
7.84147e-08
1.11996e-05
6.77308e-08
1.08813e-05
5.75829e-08
1.0572e-05
4.7929e-08
1.02716e-05
3.87304e-08
9.97981e-06
9.69633e-06
2.99535e-08
3.29511e-07
9.87191e-06
3.13259e-07
1.01323e-05
2.97016e-07
1.03996e-05
2.80797e-07
1.0674e-05
2.64611e-07
1.09556e-05
2.48466e-07
1.12447e-05
2.32373e-07
1.15416e-05
2.1634e-07
1.18463e-05
2.00374e-07
1.21591e-05
1.84479e-07
1.24802e-05
1.68659e-07
1.28098e-05
1.53136e-07
1.2962e-05
1.38497e-07
1.25925e-05
1.24669e-07
1.22338e-05
1.11584e-07
1.18854e-05
9.91799e-08
1.15471e-05
8.74026e-08
1.12184e-05
7.62026e-08
1.08993e-05
6.55356e-08
1.05893e-05
5.53616e-08
1.02882e-05
4.56434e-08
9.99569e-06
9.71159e-06
3.63428e-08
3.03714e-07
9.89274e-06
2.89509e-07
1.01533e-05
2.75301e-07
1.04207e-05
2.61089e-07
1.06952e-05
2.46874e-07
1.0977e-05
2.3266e-07
1.12663e-05
2.18449e-07
1.15633e-05
2.04244e-07
1.18681e-05
1.90047e-07
1.21811e-05
1.75858e-07
1.25023e-05
1.61677e-07
1.28321e-05
1.47696e-07
1.29841e-05
1.34444e-07
1.26137e-05
1.21861e-07
1.2254e-05
1.09892e-07
1.19047e-05
9.84867e-08
1.15655e-05
8.76012e-08
1.12362e-05
7.71956e-08
1.09163e-05
6.72345e-08
1.06056e-05
5.76859e-08
1.03039e-05
4.85199e-08
1.00108e-05
9.72615e-06
3.97074e-08
2.51737e-07
9.91037e-06
2.40621e-07
1.0171e-05
2.29514e-07
1.04386e-05
2.18414e-07
1.07132e-05
2.07315e-07
1.09952e-05
1.96211e-07
1.12846e-05
1.85097e-07
1.15817e-05
1.73963e-07
1.18868e-05
1.62803e-07
1.21999e-05
1.51607e-07
1.25213e-05
1.40365e-07
1.28514e-05
1.29221e-07
1.30033e-05
1.18597e-07
1.2632e-05
1.08446e-07
1.22716e-05
9.87267e-08
1.19216e-05
8.94032e-08
1.15818e-05
8.04433e-08
1.12518e-05
7.18189e-08
1.09314e-05
6.3505e-08
1.06202e-05
5.54797e-08
1.03179e-05
4.77227e-08
1.00244e-05
9.7393e-06
4.02137e-08
1.78521e-07
9.92399e-06
1.71289e-07
1.01847e-05
1.641e-07
1.04524e-05
1.56949e-07
1.07272e-05
1.49828e-07
1.10092e-05
1.42725e-07
1.12988e-05
1.35626e-07
1.15961e-05
1.28515e-07
1.19012e-05
1.21374e-07
1.22145e-05
1.14181e-07
1.25362e-05
1.06914e-07
1.28664e-05
9.96528e-08
1.30184e-05
9.2662e-08
1.26466e-05
8.59083e-08
1.22857e-05
7.93642e-08
1.19352e-05
7.30067e-08
1.1595e-05
6.68164e-08
1.12646e-05
6.07773e-08
1.09438e-05
5.48762e-08
1.06322e-05
4.91021e-08
1.03297e-05
4.34456e-08
1.00358e-05
9.75039e-06